34
Properties=species:S:1:pos:R:3:forces:R:3 energy=-1616.801124966256 pbc="F F F"
C       -3.57429562      -0.97175582      -0.20965830       0.00328570      -0.00926288      -0.00684322
C       -3.68440450       0.39545951       0.10190296       0.00802818      -0.00494699      -0.00551728
C       -2.56795153       1.17506833       0.20904442      -0.01541929      -0.00126353       0.00232106
C       -1.27927809       0.61575543       0.03319431      -0.01310791       0.01669587       0.01310357
C       -0.11024643       1.36088374       0.21650396      -0.00186163       0.00393613      -0.00210825
C        1.15932706       0.81118330       0.01224789      -0.00710527      -0.01301455       0.00362859
C        2.34393730       1.56938196       0.16434648      -0.00492028       0.00628247       0.00296313
C        3.56712349       0.98030115       0.01936955      -0.00417076       0.00632213       0.00135499
C        3.67186911      -0.38576240      -0.29900411       0.02043466       0.00961284       0.00252815
C        2.55237241      -1.14873045      -0.46605973       0.00671575       0.00806253       0.00324550
C        1.26752123      -0.57717532      -0.30903071      -0.00966597      -0.01959118       0.00702822
C        0.10185942      -1.34063834      -0.40816555      -0.01833597      -0.00291595       0.00308508
C       -1.16847279      -0.77310911      -0.28467182      -0.02201405       0.00506799       0.01132233
C       -2.35008126      -1.54134653      -0.41000012      -0.00378486      -0.01384723       0.00026268
H       -4.46795724      -1.57191878      -0.28583204      -0.00337358       0.01395391      -0.00679733
H       -4.66344352       0.82099799       0.26159581       0.02088692       0.01647535      -0.01362639
H       -2.64922637       2.22628601       0.44052954       0.00800886       0.00417066       0.00224975
H       -0.19044842       2.40380984       0.49223785      -0.00484191       0.01823906      -0.01721898
H        2.25798934       2.61780822       0.40480345       0.00749722       0.01561196       0.00233240
H        4.46665624       1.56098004       0.15371648       0.00062785       0.00301192      -0.00813167
H        4.65057764      -0.82677486      -0.40448240       0.01070336      -0.01495477      -0.00838607
H        2.62543254      -2.19744878      -0.71327653       0.00286346       0.01715942       0.00889948
H        0.18432303      -2.39924721      -0.61435963       0.00141856      -0.00754458      -0.01732369
H       -2.25921829      -2.58740225      -0.65774680      -0.00615637      -0.02711241       0.00342983
C        1.38771569      -1.77527964       2.35864973      -0.00349905       0.00138550      -0.00402377
N        2.42974228      -2.23782761       2.23284982       0.00728416      -0.00780418       0.00273905
C        0.11250260      -1.19384501       2.49026422       0.00352345      -0.00378743       0.00369629
C       -0.03430390       0.14886016       2.77590738       0.00656417      -0.00190732       0.00215806
C        1.08361511       0.98648780       2.95751309      -0.00013999      -0.01088574       0.00039143
N        1.99541374       1.66888236       3.09101774       0.01035260       0.00327578       0.00421397
C       -1.30319454       0.72762191       2.96875627      -0.01395158       0.00523355       0.00033468
N       -2.33670438       1.20566785       3.10623036       0.01463592      -0.01675931      -0.00036948
C       -1.00335737      -2.04217109       2.35988520      -0.00268370      -0.00191608       0.00300997
N       -1.91678098      -2.72479939       2.23606423       0.00220134       0.00301708       0.00604787
